Untitled

8 atoms
7 bonds
7 angles
6 dihedrals
1 impropers

3 atom types
7 bond types
7 angle types
6 dihedral types
1 improper types

  0.0000000   5.4700000 xlo xhi
  0.0000000   2.7690000 ylo yhi
  0.0000000   3.9120000 zlo zhi
  0.0000000   0.0000000   0.0000000 xy xz yz

Masses

1  15.0350000
2  14.0270000
3  13.0190000

Bond Coeffs

1 harmonic    4.50000000e+02    1.54000000e+00
2 harmonic    4.50000000e+02    1.54000000e+00
3 harmonic    4.50000000e+02    1.54000000e+00
4 harmonic    4.50000000e+02    1.54000000e+00
5 harmonic    4.50000000e+02    1.54000000e+00
6 harmonic    4.50000000e+02    1.54000000e+00
7 harmonic    4.50000000e+02    1.54000000e+00

Angle Coeffs

1 harmonic    6.21001303e+01    1.13999694e+02
2 harmonic    6.21001303e+01    1.13999694e+02
3 harmonic    6.21001303e+01    1.13999694e+02
4 harmonic    6.21001303e+01    1.12000071e+02
5 harmonic    6.21001303e+01    1.12000071e+02
6 harmonic    6.21001303e+01    1.13999694e+02
7 harmonic    6.21001303e+01    1.12000071e+02

Dihedral Coeffs

1 nharmonic 9    1.98785851e+00   -4.22992352e+00   -6.02055449e-01    7.17323136e+00    4.42409178e+00   -3.90478011e+00   -8.91701721e+00    3.44780115e+00    5.59541109e+00
2 nharmonic 9    1.98785851e+00   -4.22992352e+00   -6.02055449e-01    7.17323136e+00    4.42409178e+00   -3.90478011e+00   -8.91701721e+00    3.44780115e+00    5.59541109e+00
3 multi/harmonic    7.85423040e-01   -1.77870698e+00    4.44538719e-01    3.50757409e+00    0.00000000e+00
4 multi/harmonic    7.85423040e-01   -1.77870698e+00    4.44538719e-01    3.50757409e+00    0.00000000e+00
5 multi/harmonic    7.85423040e-01   -1.77870698e+00    4.44538719e-01    3.50757409e+00    0.00000000e+00
6 multi/harmonic    7.85423040e-01   -1.77870698e+00    4.44538719e-01    3.50757409e+00    0.00000000e+00

Improper Coeffs

1 harmonic    6.18785851e+01    3.05000000e+01

Atoms

     1      1      1 0.00000000    0.0000000    0.0000000    3.7900000
     2      1      2 0.00000000    1.5300000    0.0500000    3.9100000
     3      1      2 0.00000000    2.1400000    0.9500000    2.8300000
     4      2      2 0.00000000    3.6700000    1.0400000    2.9800000
     5      2      3 0.00000000    4.3400000    1.8100000    1.8000000
     6      2      2 0.00000000    4.9200000    0.8400000    0.7400000
     7      2      1 0.00000000    3.8600000    0.0300000    0.0000000
     8      2      1 0.00000000    5.4700000    2.7700000    2.3000000

Velocities

     1   0.0000000   0.0000000   0.0000000
     2   0.0000000   0.0000000   0.0000000
     3   0.0000000   0.0000000   0.0000000
     4   0.0000000   0.0000000   0.0000000
     5   0.0000000   0.0000000   0.0000000
     6   0.0000000   0.0000000   0.0000000
     7   0.0000000   0.0000000   0.0000000
     8   0.0000000   0.0000000   0.0000000

Bonds

     1      1 1 2
     2      2 2 3
     3      3 3 4
     4      4 4 5
     5      5 5 6
     6      6 5 8
     7      7 6 7

Angles

     1      1 1 2 3
     2      2 2 3 4
     3      3 3 4 5
     4      4 4 5 6
     5      5 4 5 8
     6      6 5 6 7
     7      7 6 5 8

Dihedrals

     1      1 1 2 3 4
     2      2 2 3 4 5
     3      3 3 4 5 6
     4      4 3 4 5 8
     5      5 4 5 6 7
     6      6 7 6 5 8

Impropers

     1      1 5 4 8 6
