Untitled

6 atoms
5 bonds
4 angles
3 dihedrals
0 impropers

2 atom types
5 bond types
4 angle types
3 dihedral types

  0.0000000   0.6140000 xlo xhi
  0.0000000   5.0400000 ylo yhi
  0.0000000   3.8370000 zlo zhi
  0.0000000   0.0000000   0.0000000 xy xz yz

Masses

1  15.0350000
2  14.0270000

Bond Coeffs

1 harmonic    4.50000000e+02    1.54000000e+00
2 harmonic    4.50000000e+02    1.54000000e+00
3 harmonic    4.50000000e+02    1.54000000e+00
4 harmonic    4.50000000e+02    1.54000000e+00
5 harmonic    4.50000000e+02    1.54000000e+00

Angle Coeffs

1 harmonic    6.21001303e+01    1.13999694e+02
2 harmonic    6.21001303e+01    1.13999694e+02
3 harmonic    6.21001303e+01    1.13999694e+02
4 harmonic    6.21001303e+01    1.13999694e+02

Dihedral Coeffs

1 multi/harmonic    2.00701721e+00   -4.01202677e+00    2.71015774e-01    6.29005736e+00    0.00000000e+00
2 multi/harmonic    2.00701721e+00   -4.01202677e+00    2.71015774e-01    6.29005736e+00    0.00000000e+00
3 multi/harmonic    2.00701721e+00   -4.01202677e+00    2.71015774e-01    6.29005736e+00    0.00000000e+00

Atoms

     1      7      1 0.00000000    0.1000000    0.0000000    0.0000000
     2      7      2 0.00000000    0.6100000    0.7200000    1.2600000
     3      7      2 0.00000000    0.1000000    2.1800000    1.2600000
     4      7      2 0.00000000    0.6100000    2.9000000    2.5200000
     5      7      2 0.00000000    0.0000000    4.3100000    2.5800000
     6      7      1 0.00000000    0.5100000    5.0400000    3.8400000

Velocities

     1   0.0000000   0.0000000   0.0000000
     2   0.0000000   0.0000000   0.0000000
     3   0.0000000   0.0000000   0.0000000
     4   0.0000000   0.0000000   0.0000000
     5   0.0000000   0.0000000   0.0000000
     6   0.0000000   0.0000000   0.0000000

Bonds

     1      1 2 1
     2      2 3 2
     3      3 4 3
     4      4 5 4
     5      5 6 5

Angles

     1      1 1 2 3
     2      2 2 3 4
     3      3 3 4 5
     4      4 4 5 6

Dihedrals

     1      1 1 2 3 4
     2      2 2 3 4 5
     3      3 3 4 5 6
